<?xml version="1.0" encoding="UTF-8"?>

<!-- generated on 2025-10-16 13:00:03 by Eclipse SUMO sumo Version 1.24.0
<sumoConfiguration xmlns:xsi="http://www.w3.org/2001/XMLSchema-instance" xsi:noNamespaceSchemaLocation="http://sumo.dlr.de/xsd/sumoConfiguration.xsd">

    <input>
        <net-file value="sim/osm.net.xml.gz"/>
        <route-files value="sim/osm.bus.trips.xml,sim/osm.motorcycle.trips.xml,sim/osm.passenger.trips.xml,sim/osm.truck.trips.xml"/>
        <additional-files value="sim/osm.poly.xml.gz,sim/output.add.xml"/>
    </input>

    <output>
        <tripinfo-output value="sim/tripinfos.xml"/>
        <statistic-output value="sim/stats.xml"/>
    </output>

    <processing>
        <ignore-route-errors value="true"/>
        <tls.actuated.jam-threshold value="30"/>
    </processing>

    <routing>
        <device.rerouting.adaptation-steps value="18"/>
        <device.rerouting.adaptation-interval value="10"/>
    </routing>

    <report>
        <verbose value="true"/>
        <duration-log.statistics value="true"/>
        <no-step-log value="true"/>
    </report>

    <traci_server>
        <remote-port value="55263"/>
    </traci_server>

    <gui_only>
        <gui-settings-file value="sim/osm.view.xml"/>
        <start value="true"/>
    </gui_only>

</sumoConfiguration>
-->

<tripinfos xmlns:xsi="http://www.w3.org/2001/XMLSchema-instance" xsi:noNamespaceSchemaLocation="http://sumo.dlr.de/xsd/tripinfo_file.xsd">
</tripinfos>
